FROM dockerfile/nodejs

# Installs Oracle JDK 7
# Installs i386 architecture required for running 32 bit Android tools
# Installs Ant
ENV ANT_VERSION 1.9.4
RUN echo oracle-java7-installer shared/accepted-oracle-license-v1-1 select true | debconf-set-selections && \
    add-apt-repository -y ppa:webupd8team/java && \
    dpkg --add-architecture i386 && \
    apt-get update && \
    apt-get install -y oracle-java7-installer libc6:i386 libncurses5:i386 libstdc++6:i386 lib32z1 && \
    rm -rf /var/lib/apt/lists/* && \
    apt-get autoremove -y && \
    apt-get clean && \
    cd && \
    wget -q http://www.us.apache.org/dist//ant/binaries/apache-ant-${ANT_VERSION}-bin.tar.gz && \
    tar -xzf apache-ant-${ANT_VERSION}-bin.tar.gz && \
    mv apache-ant-${ANT_VERSION} /opt/ant && \
    rm apache-ant-${ANT_VERSION}-bin.tar.gz
ENV ANT_HOME /opt/ant
ENV PATH ${PATH}:/opt/ant/bin
ENV JAVA_HOME /usr/lib/jvm/java-7-oracle

# Installs Android SDK
ENV ANDROID_SDK_FILENAME android-sdk_r23.0.2-linux.tgz
ENV ANDROID_SDK_URL http://dl.google.com/android/${ANDROID_SDK_FILENAME}
ENV ANDROID_API_LEVELS android-15,android-16,android-17,android-18,android-19,android-20,android-21 
ENV ANDROID_BUILD_TOOLS_VERSION 21.1.0
ENV ANDROID_HOME /opt/android-sdk-linux
ENV PATH ${PATH}:${ANDROID_HOME}/tools:${ANDROID_HOME}/platform-tools
RUN cd /opt && \
    wget -q ${ANDROID_SDK_URL} && \
    tar -xzf ${ANDROID_SDK_FILENAME} && \
    rm ${ANDROID_SDK_FILENAME} && \
    echo y | android update sdk --no-ui -a --filter tools,platform-tools,${ANDROID_API_LEVELS},build-tools-${ANDROID_BUILD_TOOLS_VERSION}

# Installs PhoneGap
# Forces a create and build in order to preload libraries
ENV PHONEGAP_VERSION 3.6.0-0.21.19
RUN npm install -g npm && \
    npm install -g phonegap@${PHONEGAP_VERSION} && \
    cd /tmp && \
    phonegap create fakeapp && \
    cd /tmp/fakeapp && \
    phonegap build android && \
    cd && \
    rm -rf /tmp/fakeapp

VOLUME ["/data"]
WORKDIR /data

EXPOSE 3000
