FROM webratio/nodejs-with-android-sdk:4.4.1

# Installs PhoneGap
# Forces a create and build in order to preload libraries
ENV PHONEGAP_VERSION 6.2.2
RUN apt-get update -y && \
    apt-get install -y git-core && \
    rm -rf /var/lib/apt/lists/* && \
    apt-get autoremove -y && \
    apt-get clean
RUN npm install -g npm && \
    npm install -g phonegap@${PHONEGAP_VERSION} && \
    npm install -g xmldom && \
    npm install -g xpath && \
    cd /tmp && \
    phonegap create fakeapp && \
    cd /tmp/fakeapp && \
    phonegap build android && \
    cd && \
    rm -rf /tmp/fakeapp

VOLUME ["/data"]
WORKDIR /data

EXPOSE 3000